% Model:              AxonalTension_pull_periodic_control_nov24b_k03_sweepEm.mph
% Version:            COMSOL 6.1.0.282
% Date:               Dec 2 2024, 08:11
% Dimension:          1
% Nodes:              52822
% Expressions:        1
% Description:        Point graph
% Time (s)                Value
0                         180
0.005                     179.99999999999963
0.01                      179.99999999999974
0.015                     179.99999999999937
0.02                      179.99999999999903
0.025                     179.99999999999918
0.03                      179.99999999999937
0.035                     179.99999999999955
0.04                      179.99999999999972
0.045                     179.9999999999997
0.05                      179.9999999999996
0.055                     179.99999999999952
0.06                      179.9999999999994
0.065                     179.99999999999932
0.07                      179.99999999999926
0.075                     179.99999999999915
0.08                      179.99999999999906
0.085                     179.99999999999903
0.09                      179.99999999999906
0.095                     179.9999999999991
0.1                       179.99999999999912
0.105                     179.99999999999918
0.11                      179.99999999999918
0.115                     179.99999999999923
0.12                      179.99999999999926
0.125                     179.9999999999993
0.13                      179.99999999999932
0.135                     179.99999999999935
0.14                      179.99999999999937
0.145                     179.99999999999937
0.15                      179.9999999999994
0.155                     179.99999999999943
0.16                      179.99999999999946
0.165                     179.99999999999946
0.17                      179.99999999999943
0.17500000000000002       179.99999999999937
0.18                      179.99999999999937
0.185                     179.99999999999932
0.19                      179.99999999999926
0.195                     179.99999999999923
0.2                       179.99999999999918
0.20500000000000002       179.99999999999915
0.21                      179.9999999999991
0.215                     179.99999999999903
0.22                      179.999999999999
0.225                     179.99999999999895
0.23                      179.99999999999892
0.23500000000000001       179.99999999999886
0.24                      179.9999999999988
0.245                     179.99999999999878
0.25                      179.99999999999875
0.255                     179.99999999999872
0.26                      179.99999999999866
0.265                     179.99999999999864
0.27                      179.99999999999866
0.275                     179.99999999999872
0.28                      179.99999999999878
0.28500000000000003       179.99999999999878
0.29                      179.99999999999886
0.295                     179.9999999999989
0.3                       179.99999999999892
0.305                     179.99999999999898
0.31                      179.99999999999903
0.315                     179.9999999999991
0.32                      179.99999999999912
0.325                     179.99999999999918
0.33                      179.99999999999923
0.335                     179.99999999999926
0.34                      179.99999999999932
0.34500000000000003       179.99999999999935
0.35000000000000003       179.99999999999937
0.355                     179.99999999999943
0.36                      179.99999999999946
0.365                     179.9999999999995
0.37                      179.99999999999946
0.375                     179.99999999999946
0.38                      179.99999999999943
0.385                     179.9999999999994
0.39                      179.99999999999937
0.395                     179.99999999999937
0.4                       179.99999999999937
0.405                     179.99999999999935
0.41000000000000003       179.99999999999932
0.41500000000000004       179.99999999999932
0.42                      179.9999999999993
0.425                     179.99999999999926
0.43                      179.99999999999923
0.435                     179.9999999999992
0.44                      179.99999999999918
0.445                     179.99999999999918
0.45                      179.99999999999915
0.455                     179.99999999999912
0.46                      179.9999999999991
0.465                     179.99999999999906
0.47000000000000003       179.99999999999903
0.47500000000000003       179.999999999999
0.48                      179.99999999999898
0.485                     179.99999999999895
0.49                      179.99999999999892
0.495                     179.9999999999989
0.5                       179.99999999999886
0.505                     179.99999999999886
0.51                      179.9999999999988
0.515                     179.99999999999878
0.52                      179.99999999999878
0.525                     179.99999999999875
0.53                      179.99999999999872
0.535                     179.99999999999872
0.54                      179.99999999999866
0.545                     179.99999999999864
0.55                      179.99999999999864
0.555                     179.99999999999858
0.56                      179.99999999999855
0.5650000000000001        179.99999999999855
0.5700000000000001        179.99999999999855
0.5750000000000001        179.99999999999855
0.58                      179.99999999999852
0.585                     179.99999999999852
0.59                      179.99999999999852
0.595                     179.99999999999852
0.6                       179.99999999999852
0.605                     179.99999999999852
0.61                      179.99999999999852
0.615                     179.99999999999852
0.62                      179.99999999999852
0.625                     179.99999999999852
0.63                      179.99999999999852
0.635                     179.9999999999985
0.64                      179.9999999999985
0.645                     179.9999999999985
0.65                      179.9999999999985
0.655                     179.9999999999985
0.66                      179.9999999999985
0.665                     179.9999999999985
0.67                      179.99999999999847
0.675                     179.99999999999847
0.68                      179.99999999999847
0.685                     179.99999999999847
0.6900000000000001        179.99999999999844
0.6950000000000001        179.99999999999844
0.7000000000000001        179.9999999999984
0.705                     179.9999999999984
0.71                      179.9999999999984
0.715                     179.9999999999984
0.72                      179.99999999999838
0.725                     179.99999999999838
0.73                      179.99999999999835
0.735                     179.99999999999835
0.74                      179.99999999999832
0.745                     179.99999999999832
0.75                      179.99999999999832
0.755                     179.99999999999832
0.76                      179.9999999999983
0.765                     179.9999999999983
0.77                      179.9999999999983
0.775                     179.9999999999983
0.78                      179.99999999999832
0.785                     179.99999999999832
0.79                      179.99999999999832
0.795                     179.99999999999832
0.8                       179.99999999999832
0.805                     179.99999999999832
0.81                      179.99999999999835
0.8150000000000001        179.99999999999835
0.8200000000000001        179.99999999999835
0.8250000000000001        179.99999999999838
0.8300000000000001        179.99999999999838
0.835                     179.99999999999838
0.84                      179.99999999999838
0.845                     179.9999999999984
0.85                      179.9999999999984
0.855                     179.9999999999984
0.86                      179.9999999999984
0.865                     179.9999999999984
0.87                      179.99999999999844
0.875                     179.99999999999844
0.88                      179.99999999999847
0.885                     179.99999999999847
0.89                      179.99999999999847
0.895                     179.9999999999985
0.9                       179.99999999999852
0.905                     179.99999999999852
0.91                      179.99999999999855
0.915                     179.99999999999855
0.92                      179.99999999999855
0.925                     179.99999999999858
0.93                      179.99999999999858
0.935                     179.9999999999986
0.9400000000000001        179.99999999999864
0.9450000000000001        179.99999999999864
0.9500000000000001        179.99999999999864
0.9550000000000001        179.99999999999866
0.96                      179.99999999999866
0.965                     179.9999999999987
0.97                      179.99999999999866
0.975                     179.99999999999866
0.98                      179.99999999999864
0.985                     179.99999999999864
0.99                      179.99999999999864
0.995                     179.99999999999864
1                         179.99999999999864
1.0050000000000001        179.99999999999864
1.01                      179.9999999999986
1.0150000000000001        179.9999999999986
1.02                      179.99999999999858
1.025                     179.99999999999858
1.03                      179.99999999999858
1.035                     179.99999999999855
1.04                      179.99999999999855
1.045                     179.99999999999855
1.05                      179.99999999999855
1.055                     179.99999999999855
1.06                      179.99999999999852
1.065                     179.99999999999852
1.07                      179.99999999999855
1.075                     179.99999999999855
1.08                      179.9999999999986
1.085                     179.99999999999864
1.09                      179.99999999999864
1.095                     179.99999999999866
1.1                       179.9999999999987
1.105                     179.99999999999872
1.11                      179.99999999999875
1.115                     179.99999999999878
1.12                      179.99999999999878
1.125                     179.9999999999988
1.1300000000000001        179.99999999999883
1.135                     179.99999999999886
1.1400000000000001        179.99999999999886
1.145                     179.9999999999989
1.1500000000000001        179.99999999999892
1.155                     179.99999999999895
1.16                      179.99999999999898
1.165                     179.999999999999
1.17                      179.99999999999898
1.175                     179.99999999999898
1.18                      179.99999999999898
1.185                     179.99999999999898
1.19                      179.99999999999898
1.195                     179.99999999999898
1.2                       179.99999999999895
1.205                     179.99999999999895
1.21                      179.99999999999895
1.215                     179.99999999999895
1.22                      179.99999999999895
1.225                     179.99999999999892
1.23                      179.99999999999892
1.235                     179.99999999999892
1.24                      179.99999999999892
1.245                     179.99999999999892
1.25                      179.99999999999892
1.2550000000000001        179.99999999999892
1.26                      179.99999999999892
1.2650000000000001        179.9999999999989
1.27                      179.99999999999886
1.2750000000000001        179.99999999999886
1.28                      179.99999999999883
1.285                     179.9999999999988
1.29                      179.99999999999878
1.295                     179.99999999999878
1.3                       179.99999999999875
1.305                     179.99999999999872
1.31                      179.99999999999872
1.315                     179.9999999999987
1.32                      179.99999999999866
1.325                     179.99999999999864
1.33                      179.99999999999864
1.335                     179.9999999999986
1.34                      179.99999999999855
1.345                     179.99999999999855
1.35                      179.99999999999852
1.355                     179.9999999999985
1.36                      179.99999999999847
1.365                     179.99999999999844
1.37                      179.9999999999984
1.375                     179.99999999999838
1.3800000000000001        179.99999999999835
1.385                     179.99999999999832
1.3900000000000001        179.9999999999983
1.395                     179.99999999999824
1.4000000000000001        179.99999999999824
1.405                     179.9999999999982
1.41                      179.99999999999818
1.415                     179.99999999999815
1.42                      179.9999999999981
1.425                     179.9999999999981
1.43                      179.99999999999804
1.435                     179.99999999999804
1.44                      179.99999999999798
1.445                     179.99999999999795
1.45                      179.99999999999793
1.455                     179.9999999999979
1.46                      179.99999999999787
1.465                     179.99999999999784
1.47                      179.9999999999978
1.475                     179.9999999999978
1.48                      179.9999999999978
1.485                     179.99999999999778
1.49                      179.99999999999778
1.495                     179.99999999999778
1.5                       179.99999999999778
1.5050000000000001        179.99999999999778
1.51                      179.99999999999778
1.5150000000000001        179.99999999999775
1.52                      179.99999999999775
1.5250000000000001        179.99999999999775
1.53                      179.99999999999773
1.5350000000000001        179.99999999999773
1.54                      179.99999999999773
1.545                     179.9999999999977
1.55                      179.9999999999977
1.555                     179.9999999999977
1.56                      179.9999999999977
1.565                     179.9999999999977
1.57                      179.99999999999773
1.575                     179.99999999999778
1.58                      179.99999999999784
1.585                     179.99999999999787
1.59                      179.99999999999793
1.595                     179.99999999999795
1.6                       179.99999999999804
1.605                     179.99999999999807
1.61                      179.9999999999981
1.615                     179.99999999999815
1.62                      179.9999999999982
1.625                     179.99999999999824
1.6300000000000001        179.99999999999827
1.635                     179.99999999999832
1.6400000000000001        179.99999999999835
1.645                     179.9999999999984
1.6500000000000001        179.99999999999847
1.655                     179.9999999999985
1.6600000000000001        179.99999999999855
1.665                     179.9999999999986
1.67                      179.99999999999866
1.675                     179.99999999999872
1.68                      179.99999999999878
1.685                     179.99999999999886
1.69                      179.99999999999892
1.695                     179.999999999999
1.7                       179.9999999999991
1.705                     179.99999999999918
1.71                      179.99999999999923
1.715                     179.99999999999932
1.72                      179.99999999999937
1.725                     179.99999999999946
1.73                      179.99999999999955
1.735                     179.99999999999966
1.74                      179.99999999999977
1.745                     179.99999999999986
1.75                      179.99999999999994
1.7550000000000001        180
1.76                      180.0000000000001
1.7650000000000001        180.0000000000002
1.77                      180.0000000000002
1.7750000000000001        180.0000000000002
1.78                      180.0000000000002
1.7850000000000001        180.0000000000002
1.79                      180.00000000000014
1.795                     180.00000000000014
1.8                       180.0000000000001
1.805                     180.00000000000006
1.81                      180.00000000000003
1.815                     180
1.82                      179.99999999999994
1.825                     179.99999999999991
1.83                      179.99999999999983
1.835                     179.99999999999977
1.84                      179.99999999999966
1.845                     179.99999999999957
1.85                      179.99999999999946
1.855                     179.99999999999937
1.86                      179.99999999999926
1.865                     179.99999999999918
1.87                      179.9999999999991
1.875                     179.999999999999
1.8800000000000001        179.99999999999892
1.885                     179.99999999999886
1.8900000000000001        179.99999999999878
1.895                     179.99999999999872
1.9000000000000001        179.99999999999864
1.905                     179.99999999999855
1.9100000000000001        179.99999999999847
1.915                     179.99999999999838
1.92                      179.9999999999983
1.925                     179.9999999999982
1.93                      179.99999999999812
1.935                     179.99999999999804
1.94                      179.99999999999793
1.945                     179.99999999999784
1.95                      179.99999999999773
1.955                     179.99999999999764
1.96                      179.99999999999756
1.965                     179.99999999999756
1.97                      179.99999999999778
1.975                     179.99999999999807
1.98                      179.99999999999832
1.985                     179.9999999999986
1.99                      179.9999999999986
1.995                     180.2256510660016
2                         181.37978038716886
2.005                     182.83765944444653
2.0100000000000002        183.53763487130055
2.015                     183.76453567859403
2.02                      183.95226648878855
2.025                     184.1053382097528
2.0300000000000002        184.2417793975608
2.035                     184.36893911669785
2.04                      184.48696500585
2.045                     184.59666568233655
2.05                      184.69975116365015
2.055                     184.79794781894958
2.06                      184.89106503238247
2.065                     184.97997236698367
2.07                      185.06543433148315
2.075                     185.14795062624424
2.08                      185.2275073447442
2.085                     185.3049493505765
2.09                      185.3808065380995
2.095                     185.45421629970664
2.1                       185.52502433263118
2.105                     185.59387296565953
2.11                      185.6609217834022
2.115                     185.72633037046978
2.12                      185.79025831147274
2.125                     185.85286519102152
2.13                      185.91423290200814
2.1350000000000002        185.9743996753544
2.14                      186.03361563917366
2.145                     186.09202580307323
2.15                      186.14977517666014
2.1550000000000002        186.20700876954163
2.16                      186.2638715913249
2.165                     186.32034542132402
2.17                      186.3743723649474
2.1750000000000003        186.42750775499863
2.18                      186.47978239776586
2.185                     186.53122709953723
2.19                      186.58187266660087
2.195                     186.63174990524493
2.2                       186.68088962175764
2.205                     186.72932262242696
2.21                      186.7770797135411
2.215                     186.82419170138826
2.22                      186.87068939225657
2.225                     186.91660359243414
2.23                      186.9619651082091
2.235                     187.00680474586966
2.24                      187.03948353603678
2.245                     186.78372324025415
2.25                      185.7642146642744
2.255                     184.38126242686187
2.2600000000000002        183.68872023768495
2.265                     183.49806302223192
2.27                      183.36281575955982
2.275                     183.25195167380357
2.2800000000000002        183.15696266232666
2.285                     183.07363836741112
2.29                      182.999117092758
2.295                     182.9315493962486
2.3000000000000003        182.86970729588694
2.305                     182.81268877047864
2.31                      182.75977625720148
2.315                     182.71040613923648
2.32                      182.6641655266009
2.325                     182.62067190049856
2.33                      182.5796326049289
2.335                     182.54079149934452
2.34                      182.50392728966852
2.345                     182.4688552709847
2.35                      182.4354194037932
2.355                     182.4034817771327
2.36                      182.37292397131858
2.365                     182.34363818314165
2.37                      182.31552580405514
2.375                     182.28851296051843
2.38                      182.26251877318936
2.3850000000000002        182.23746994849637
2.39                      182.21330078940426
2.395                     182.1899573091764
2.4                       182.16739010776894
2.4050000000000002        182.1455564342686
2.41                      182.1244227184089
2.415                     182.10394523487088
2.42                      182.08408792032748
2.4250000000000003        182.06482752048984
2.43                      182.04612542449686
2.435                     182.0279555614111
2.44                      182.01029498322285
2.445                     181.9931129925
2.45                      181.97638871110343
2.455                     181.96010056187035
2.46                      181.9442280750422
2.465                     181.92875312580003
2.47                      181.91365876953606
2.475                     181.89892862430236
2.48                      181.8845486145407
2.485                     181.87050486710146
2.49                      181.85678347870072
2.495                     181.8433723361448
2.5                       181.8302595588741
2.505                     181.81743368820906
2.5100000000000002        181.80488340284276
2.515                     181.79259948095404
2.52                      181.7805726778318
2.525                     181.7687938829564
2.5300000000000002        181.7572547809044
2.535                     181.745947568265
2.54                      181.73486441776598
2.545                     181.72399227580638
2.5500000000000003        181.71332669583185
2.555                     181.70286047993952
2.56                      181.6925867858709
2.565                     181.68249912701168
2.57                      181.67259274694084
2.575                     181.6628641013929
2.58                      181.653307036447
2.585                     181.64391722853506
2.59                      181.6346907858002
2.595                     181.62562424809698
2.6                       181.61670812651494
2.605                     181.6079388533337
2.61                      181.5993145571042
2.615                     181.59083183318327
2.62                      181.58248755325926
2.625                     181.57427869117143
2.63                      181.5661960010156
2.6350000000000002        181.558239704587
2.64                      181.55040666597677
2.645                     181.54269391506125
2.65                      181.53509864750103
2.6550000000000002        181.52761728451404
2.66                      181.52024526802785
2.665                     181.51298107781778
2.67                      181.5058220212044
2.6750000000000003        181.49876551815603
2.68                      181.49180910128837
2.685                     181.48495006480405
2.69                      181.47818604567908
2.695                     181.4715149567929
2.7                       181.464934679854
2.705                     181.45844319972326
2.71                      181.45203860441399
2.715                     181.44571849810245
2.72                      181.4394813027604
2.725                     181.43332527565883
2.73                      181.4272487352632
2.735                     181.42125007345487
2.74                      181.41532761376
2.745                     181.40947940830756
2.75                      181.40370416289343
2.755                     181.39800037157988
2.7600000000000002        181.39236656180313
2.765                     181.3868012901268
2.77                      181.3813032053613
2.775                     181.37587095916578
2.7800000000000002        181.37050316818542
2.785                     181.36519849972092
2.79                      181.35995563516502
2.795                     181.35477326619946
2.8000000000000003        181.34965065369533
2.805                     181.34458643892893
2.81                      181.33957943818422
2.815                     181.33462853611627
2.82                      181.32973263983118
2.825                     181.32489073011698
2.83                      181.32010202190955
2.835                     181.31536541668567
2.84                      181.31067998146642
2.845                     181.30604481272383
2.85                      181.30145903587152
2.855                     181.2969217403816
2.86                      181.29243204055712
2.865                     181.28798915283642
2.87                      181.28359227325853
2.875                     181.27924061745708
2.88                      181.27493341966155
2.8850000000000002        181.27066993169998
2.89                      181.26644942200076
2.895                     181.26227117459425
2.9                       181.25813448811576
2.9050000000000002        181.2540386748063
2.91                      181.24998309112954
2.915                     181.24596729207
2.92                      181.24199050022506
2.9250000000000003        181.23805210135967
2.93                      181.2341514935419
2.935                     181.23028808634908
2.94                      181.22646130007348
2.945                     181.22267056492845
2.95                      181.21891532025464
2.955                     181.2151950137256
2.96                      181.21150910055425
2.965                     181.20785704269852
2.97                      181.2042384693691
2.975                     181.2006528164242
2.98                      181.19709953731376
2.985                     181.19357813169879
2.99                      181.19008810393615
2.995                     181.18662896237163
3                         181.1832002186327
3.005                     181.1798013869216
3.0100000000000002        181.17643198330785
3.015                     181.17309152502162
3.02                      181.16977952974628
3.025                     181.16649598675284
3.0300000000000002        181.16324101538993
3.035                     181.1600135987751
3.04                      181.15681334603792
3.045                     181.15363987251737
3.0500000000000003        181.15049279944176
3.055                     181.1473717536088
3.06                      181.14427636706566
3.065                     181.14120627678867
3.0700000000000003        181.1381611243635
3.075                     181.13514055566503
3.08                      181.1321442250358
3.085                     181.1291723809434
3.09                      181.12622430175819
3.095                     181.1232996867326
3.1                       181.12039824153183
3.105                     181.1175196780646
3.11                      181.1146637143132
3.115                     181.11183007416378
3.12                      181.10901848723694
3.125                     181.10622868871755
3.13                      181.10346041918604
3.1350000000000002        181.10071342444738
3.14                      181.0979874164919
3.145                     181.0952821483668
3.15                      181.09259739535233
3.1550000000000002        181.08993291790455
3.16                      181.08728848043967
3.165                     181.08466385114832
3.17                      181.0820588018088
3.1750000000000003        181.0794731076019
3.18                      181.07690654692377
3.185                     181.07435890120084
3.19                      181.07182995470302
3.1950000000000003        181.06931949444862
3.2                       181.0668273101003
3.205                     181.0643531931452
3.21                      181.0618969373947
3.215                     181.0594583385763
3.22                      181.05703719414717
3.225                     181.05463330310863
3.23                      181.0522464658196
3.235                     181.04987648381126
3.24                      181.04752315960053
3.245                     181.04518629650462
3.25                      181.0428656984544
3.255                     181.0405614497696
3.2600000000000002        181.03827322601458
3.265                     181.036000819428
3.27                      181.03374405770117
3.275                     181.0315027703037
3.2800000000000002        181.02927678837887
3.285                     181.02706594463947
3.29                      181.0248700732635
3.295                     181.0226890097898
3.3000000000000003        181.020522591014
3.305                     181.01837065488388
3.31                      181.01623315794308
3.315                     181.01411000871096
3.3200000000000003        181.0120009648288